 Q-Chem 5.1, Q-Chem, Inc., Pleasanton, CA (2018)
 Q-Chem 5.1.0 for Intel X86 EM64T Linux

User input:
--------------------------------------------------------------
$molecule
   0 1
--
	0 1
  Cu    0.0933770   -0.9860703    3.3070100
  H    0.6872119   -0.5609557    1.2582878
--
	0 1
  H    0.2693870   -1.6522544    4.8608284
  H   -0.0992255   -0.9695766    5.0847360

$end

$rem
	jobtype opt
	method b97m-v
	basis gen
	scf_guess fragmo
	! frgm_method stoll
	! frgm_lpcorr rs
	! eda_bsse true
	! diis_separate_errvec 1
$end

$basis
	Cu 1
	def2-tzvp
	****
	H 2
	def2-svp
	****
	H 3
	def2-svp
	****
	H 4
	def2-svp
	****
$end

--------------------------------------------------------------

   12   -1641.8879151207      2.79e-09  Convergence criterion met
   10   -1641.9019260864      2.45e-09  Convergence criterion met
   10   -1641.9153295519      4.89e-09  Convergence criterion met
   10   -1641.9265546421      7.39e-09  Convergence criterion met
   10   -1641.9329239171      8.64e-09  Convergence criterion met
   10   -1641.9335686957      4.06e-09  Convergence criterion met
    9   -1641.9339302233      7.61e-09  Convergence criterion met
   10   -1641.9343572086      4.02e-09  Convergence criterion met
   10   -1641.9346639109      3.33e-09  Convergence criterion met
   11   -1641.9339094780      3.47e-09  Convergence criterion met
   11   -1641.9346325716      1.78e-09  Convergence criterion met
    9   -1641.9346440153      4.44e-09  Convergence criterion met
    9   -1641.9346622653      5.86e-09  Convergence criterion met
    9   -1641.9346766660      1.12e-09  Convergence criterion met
    9   -1641.9346904557      5.85e-09  Convergence criterion met
 **  OPTIMIZATION CONVERGED  **
 Total job time:  283.49s(wall), 2259.00s(cpu)
        *  Thank you very much for using Q-Chem.  Have a nice day.  *

User input: 2 of 3

n0061.mhg 10.0.22
Q-Chem Developer Version! Running on 10.0.22.*
                  Welcome to Q-Chem
     A Quantum Leap Into The Future Of Chemistry

 Q-Chem 5.1, Q-Chem, Inc., Pleasanton, CA (2018)

 Yihan Shao,  Zhengting Gan,  E. Epifanovsky,  A. T. B. Gilbert,  M. Wormit,
 J. Kussmann,  A. W. Lange,  A. Behn,  Jia Deng,  Xintian Feng,  D. Ghosh,
 M. Goldey,  P. R. Horn,  L. D. Jacobson,  I. Kaliman,  T. Kus,  A. Landau,
 Jie Liu,  E. I. Proynov,  R. M. Richard,  R. P. Steele,  E. J. Sundstrom,
 H. L. Woodcock III,  P. M. Zimmerman,  D. Zuev,  B. Albrecht,  E. Alguire,
 S. A. Baeppler,  D. Barton,  Z. Benda,  Y. A. Bernard,  E. J. Berquist,
 K. B. Bravaya,  H. Burton,  D. Casanova,  Chun-Min Chang,  Yunqing Chen,
 A. Chien,  K. D. Closser,  M. P. Coons,  S. Coriani,  S. Dasgupta,
 A. L. Dempwolff,  M. Diedenhofen,  Hainam Do,  R. G. Edgar,  Po-Tung Fang,
 S. Faraji,  S. Fatehi,  Qingguo Feng,  K. D. Fenk,  J. Fosso-Tande,
 Qinghui Ge,  A. Ghysels,  G. Gidofalvi,  J. Gomes,  J. Gonthier,  A. Gunina,
 M. W. D. Hanson-Heine,  P. H. P. Harbach,  A. W. Hauser,  J. E. Herr,
 E. G. Hohenstein,  Z. C. Holden,  Kerwin Hui,  T.-C. Jagau,  Hyunjun Ji,
 B. Kaduk,  K. Khistyaev,  Jaehoon Kim,  P. Klunzinger,  K. Koh,
 D. Kosenkov,  L. Koulias,  T. Kowalczyk,  C. M. Krauter,  A. Kunitsa,
 Ka Un Lao,  A. Laurent,  K. V. Lawler,  Joonho Lee,  D. Lefrancois,
 S. Lehtola,  D. S. Levine,  Yi-Pei Li,  You-Sheng Lin,  Fenglai Liu,
 E. Livshits,  A. Luenser,  P. Manohar,  E. Mansoor,  S. F. Manzer,
 Shan-Ping Mao,  Yuezhi Mao,  N. Mardirossian,  A. V. Marenich,
 T. Markovich,  L. A. Martinez-Martinez,  S. A. Maurer,  N. J. Mayhall,
 S. C. McKenzie,  J.-M. Mewes,  A. F. Morrison,  J. W. Mullinax,  K. Nanda,
 T. S. Nguyen-Beck,  R. Olivares-Amaya,  J. A. Parkhill,  T. M. Perrine,
 F. Plasser,  P. Pokhilko,  S. Prager,  A. Prociuk,  E. Ramos,  D. R. Rehn,
 F. Rob,  M. Schneider,  N. Sergueev,  S. M. Sharada,  S. Sharma,
 D. W. Small,  T. Stauch,  T. Stein,  Yu-Chuan Su,  A. J. W. Thom,
 A. Tkatchenko,  T. Tsuchimochi,  N. M. Tubman,  L. Vogt,  M. L. Vidal,
 O. Vydrov,  M. A. Watson,  J. Wenzel,  M. de Wergifosse,  T. A. Wesolowski,
 A. White,  J. Witte,  A. Yamada,  Jun Yang,  K. Yao,  S. Yeganeh,
 S. R. Yost,  Zhi-Qiang You,  A. Zech,  Igor Ying Zhang,  Xing Zhang,
 Yan Zhao,  Ying Zhu,  B. R. Brooks,  G. K. L. Chan,  C. J. Cramer,
 M. S. Gordon,  W. J. Hehre,  A. Klamt,  M. W. Schmidt,  C. D. Sherrill,
 D. G. Truhlar,  A. Aspuru-Guzik,  R. Baer,  A. T. Bell,  N. A. Besley,
 Jeng-Da Chai,  R. A. DiStasio Jr.,  A. Dreuw,  B. D. Dunietz,
 T. R. Furlani,  Chao-Ping Hsu,  Yousung Jung,  Jing Kong,  D. S. Lambrecht,
 WanZhen Liang,  C. Ochsenfeld,  V. A. Rassolov,  L. V. Slipchenko,
 J. E. Subotnik,  T. Van Voorhis,  J. M. Herbert,  A. I. Krylov,
 P. M. W. Gill,  M. Head-Gordon

 Contributors to earlier versions of Q-Chem not listed above:
 R. D. Adamson,  B. Austin,  J. Baker,  G. J. O. Beran,  K. Brandhorst,
 S. T. Brown,  E. F. C. Byrd,  A. K. Chakraborty,  C.-L. Cheng,
 Siu Hung Chien,  D. M. Chipman,  D. L. Crittenden,  H. Dachsel,
 R. J. Doerksen,  A. D. Dutoi,  L. Fusti-Molnar,  W. A. Goddard III,
 A. Golubeva-Zadorozhnaya,  S. R. Gwaltney,  G. Hawkins,  A. Heyden,
 S. Hirata,  G. Kedziora,  F. J. Keil,  C. Kelley,  Jihan Kim,  R. A. King,
 R. Z. Khaliullin,  P. P. Korambath,  W. Kurlancheek,  A. M. Lee,  M. S. Lee,
 S. V. Levchenko,  Ching Yeh Lin,  D. Liotard,  R. C. Lochan,  I. Lotan,
 P. E. Maslen,  N. Nair,  D. P. O'Neill,  D. Neuhauser,  E. Neuscamman,
 C. M. Oana,  R. Olson,  B. Peters,  R. Peverati,  P. A. Pieniazek,
 Y. M. Rhee,  J. Ritchie,  M. A. Rohrdanz,  E. Rosta,  N. J. Russ,
 H. F. Schaefer III,  N. E. Schultz,  N. Shenvi,  A. C. Simmonett,  A. Sodt,
 D. Stuck,  K. S. Thanthiriwatte,  V. Vanovschi,  Tao Wang,  A. Warshel,
 C. F. Williams,  Q. Wu,  X. Xu,  W. Zhang

 Please cite Q-Chem as follows:
 Y. Shao et al., Mol. Phys. 113, 184-215 (2015)
 DOI: 10.1080/00268976.2014.952696

 Q-Chem 5.1.0 for Intel X86 EM64T Linux

 Parts of Q-Chem use Armadillo 8.300.2 (Tropical Shenanigans).
 http://arma.sourceforge.net/

 Q-Chem begins on Thu May 10 17:22:24 2018

Host: n0061.mhg0
0

     Scratch files written to /scratch/romitchak/CuH-H2_b97m-v.in20180510171729//
The previous job contains 2 fragments, simply inherited here

!!********************************************.
!!******************Warning*******************.
!!Desired Analytical derivatives not available.
!!Finite difference job might take a long time.
!!********************************************.
!!********************************************.

 2-order derivative to be evaluated numerically with 1-order analytical derivatives

Checking the input file for inconsistencies... 	...done.

--------------------------------------------------------------
User input:
--------------------------------------------------------------

$comment
	Now run frequency calculation
$end

$molecule
	read
$end

$rem
	jobtype freq
	method b97m-v
	basis gen
	scf_guess fragmo
$end
$basis
	Cu 1
	def2-tzvp
	****
	H 2
	def2-svp
	****
	H 3
	def2-svp
	****
	H 4
	def2-svp
	****
$end

--------------------------------------------------------------

    8   -1641.9348773397      2.21e-09  Convergence criterion met
    8   -1641.9348776949      2.69e-09  Convergence criterion met
    8   -1641.9348782574      2.82e-09  Convergence criterion met
    8   -1641.9348760247      4.60e-09  Convergence criterion met
    8   -1641.9348776379      2.29e-09  Convergence criterion met
    6   -1641.9348775371      4.89e-09  Convergence criterion met
    8   -1641.9348774821      1.71e-09  Convergence criterion met
    8   -1641.9348775523      2.71e-09  Convergence criterion met
    8   -1641.9348760415      2.74e-09  Convergence criterion met
    8   -1641.9348782405      4.59e-09  Convergence criterion met
    8   -1641.9348776375      2.36e-09  Convergence criterion met
    6   -1641.9348775375      4.83e-09  Convergence criterion met
 Frequency:       433.69                 522.65                 841.82
 Force Cnst:      0.1158                 0.1688                 0.4344
 Red. Mass:       1.0448                 1.0490                 1.0404
 IR Intens:       58.500                 20.560                  3.089
 Frequency:      1295.80                1858.89                3632.26
 Force Cnst:      1.0011                 2.0802                 7.8358
 Red. Mass:       1.0119                 1.0217                 1.0080
 IR Intens:        4.495                 45.524                 16.119

 STANDARD THERMODYNAMIC QUANTITIES AT   298.15 K  AND     1.00 ATM

   This Molecule has  0 Imaginary Frequencies
   Zero point vibrational energy:       12.273 kcal/mol

   Atom    1 Element Cu Has Mass   62.92960
   Atom    2 Element H  Has Mass    1.00783
   Atom    3 Element H  Has Mass    1.00783
   Atom    4 Element H  Has Mass    1.00783
   Molecular Mass:    65.953090 amu
   Principal axes and moments of inertia in amu*Bohr^2:
                             1           2           3
    Eigenvalues --        1.14574    27.39234    28.53799
          X               1.00000    -0.00001     0.00002
          Y               0.00001     1.00000     0.00000
          Z              -0.00002    -0.00000     1.00000
   Rotational Symmetry Number is   1
   The Molecule is an Asymmetric Top
   Translational Enthalpy:        0.889 kcal/mol
   Rotational Enthalpy:           0.889 kcal/mol
   Vibrational Enthalpy:         12.628 kcal/mol
   gas constant (RT):             0.592 kcal/mol
   Translational Entropy:        38.477  cal/mol.K
   Rotational Entropy:           14.557  cal/mol.K
   Vibrational Entropy:           1.657  cal/mol.K

   Total Enthalpy:               14.998 kcal/mol
   Total Entropy:                54.691  cal/mol.K

        *  Thank you very much for using Q-Chem.  Have a nice day.  *
 Q-Chem 5.1, Q-Chem, Inc., Pleasanton, CA (2018)
 Q-Chem 5.1.0 for Intel X86 EM64T Linux

             Standard Nuclear Orientation (Angstroms)
    I     Atom           X                Y                Z
 ----------------------------------------------------------------
    1      Cu     -0.0552473427    -0.0000545429     0.0001717877
    2      H      -1.5662518003     0.0006906384    -0.0025924868
    3      H       1.5847354501    -0.3985119833    -0.0011985973
    4      H       1.5836892893     0.3994030888    -0.0011907600
 ----------------------------------------------------------------

   19   -1641.9364760520      9.19E-06 Convergence criterion met
    6   -1641.9348774203      4.16E-06 Convergence criterion met
 Total energy in the final basis set = -1641.93487742

                    Orbital Energies (a.u.)
 --------------------------------------------------------------

 Alpha MOs
 -- Occupied --
******* -38.890 -33.951 -33.949 -33.946  -4.354  -2.799  -2.791
 -2.786  -0.519  -0.280  -0.258  -0.250  -0.240  -0.240  -0.211

          Ground-State Mulliken Net Atomic Charges

     Atom                 Charge (a.u.)
  ----------------------------------------
      1 Cu                   -0.241653
      2 H                    -0.010243
      3 H                     0.126059
      4 H                     0.125837
  ----------------------------------------
  Sum of atomic charges =    -0.000000

                    Cartesian Multipole Moments
 -----------------------------------------------------------------
    Charge (ESU x 10^10)
                -0.0000
    Dipole Moment (Debye)
         X       3.5889      Y      -0.0011      Z       0.0022
       Tot       3.5889
    Quadrupole Moments (Debye-Ang)
        XX     -17.3412     XY       0.0010     YY     -16.3649
        XZ      -0.0044     YZ       0.0000     ZZ     -16.8247

 Total job time:  67.52s(wall), 230.10s(cpu)
        *  Thank you very much for using Q-Chem.  Have a nice day.  *
