 Q-Chem 5.1, Q-Chem, Inc., Pleasanton, CA (2018)
 Q-Chem 5.1.0 for Intel X86 EM64T Linux

User input:
--------------------------------------------------------------
$molecule
   0 1
--
	0 1
  Cu    0.0933770   -0.9860703    3.3070100
  H    0.6872119   -0.5609557    1.2582878
--
	0 1
  H    0.2693870   -1.6522544    4.8608284
  H   -0.0992255   -0.9695766    5.0847360

$end

$rem
	jobtype opt
	method b3lyp
	dft_d d3_bj
	basis gen
	scf_guess fragmo
	! frgm_method stoll
	! frgm_lpcorr rs
	! eda_bsse true
	! diis_separate_errvec 1
$end

$basis
	Cu 1
	def2-qzvppd
	****
	H 2
	def2-msvp
	****
	H 3
	def2-msvp
	****
	H 4
	def2-msvp
	****
$end

--------------------------------------------------------------

   12   -1642.3298704102      2.11e-09  Convergence criterion met
   10   -1642.3441158466      4.65e-09  Convergence criterion met
   10   -1642.3578707359      7.47e-09  Convergence criterion met
   10   -1642.3692333033      6.87e-09  Convergence criterion met
   10   -1642.3756059280      4.93e-09  Convergence criterion met
   10   -1642.3761519853      1.58e-09  Convergence criterion met
    9   -1642.3763820320      5.26e-09  Convergence criterion met
    9   -1642.3767330111      8.52e-09  Convergence criterion met
    9   -1642.3769457687      3.40e-09  Convergence criterion met
   10   -1642.3770565004      3.83e-09  Convergence criterion met
    9   -1642.3770355963      7.74e-09  Convergence criterion met
    9   -1642.3770747522      1.87e-09  Convergence criterion met
    9   -1642.3771105982      3.21e-09  Convergence criterion met
    8   -1642.3771133269      4.33e-09  Convergence criterion met
    8   -1642.3771175224      7.69e-09  Convergence criterion met
    8   -1642.3771201068      4.31e-09  Convergence criterion met
    8   -1642.3771240228      5.05e-09  Convergence criterion met
    8   -1642.3771251665      4.76e-09  Convergence criterion met
    7   -1642.3771253652      7.48e-09  Convergence criterion met
 Final energy is   -1642.37712536517
 **  OPTIMIZATION CONVERGED  **
 Total job time:  210.88s(wall), 2912.08s(cpu)
        *  Thank you very much for using Q-Chem.  Have a nice day.  *

User input: 2 of 3

n0057.mhg 10.0.22
Q-Chem Developer Version! Running on 10.0.22.*
                  Welcome to Q-Chem
     A Quantum Leap Into The Future Of Chemistry

 Q-Chem 5.1, Q-Chem, Inc., Pleasanton, CA (2018)

 Yihan Shao,  Zhengting Gan,  E. Epifanovsky,  A. T. B. Gilbert,  M. Wormit,
 J. Kussmann,  A. W. Lange,  A. Behn,  Jia Deng,  Xintian Feng,  D. Ghosh,
 M. Goldey,  P. R. Horn,  L. D. Jacobson,  I. Kaliman,  T. Kus,  A. Landau,
 Jie Liu,  E. I. Proynov,  R. M. Richard,  R. P. Steele,  E. J. Sundstrom,
 H. L. Woodcock III,  P. M. Zimmerman,  D. Zuev,  B. Albrecht,  E. Alguire,
 S. A. Baeppler,  D. Barton,  Z. Benda,  Y. A. Bernard,  E. J. Berquist,
 K. B. Bravaya,  H. Burton,  D. Casanova,  Chun-Min Chang,  Yunqing Chen,
 A. Chien,  K. D. Closser,  M. P. Coons,  S. Coriani,  S. Dasgupta,
 A. L. Dempwolff,  M. Diedenhofen,  Hainam Do,  R. G. Edgar,  Po-Tung Fang,
 S. Faraji,  S. Fatehi,  Qingguo Feng,  K. D. Fenk,  J. Fosso-Tande,
 Qinghui Ge,  A. Ghysels,  G. Gidofalvi,  J. Gomes,  J. Gonthier,  A. Gunina,
 M. W. D. Hanson-Heine,  P. H. P. Harbach,  A. W. Hauser,  J. E. Herr,
 E. G. Hohenstein,  Z. C. Holden,  Kerwin Hui,  T.-C. Jagau,  Hyunjun Ji,
 B. Kaduk,  K. Khistyaev,  Jaehoon Kim,  P. Klunzinger,  K. Koh,
 D. Kosenkov,  L. Koulias,  T. Kowalczyk,  C. M. Krauter,  A. Kunitsa,
 Ka Un Lao,  A. Laurent,  K. V. Lawler,  Joonho Lee,  D. Lefrancois,
 S. Lehtola,  D. S. Levine,  Yi-Pei Li,  You-Sheng Lin,  Fenglai Liu,
 E. Livshits,  A. Luenser,  P. Manohar,  E. Mansoor,  S. F. Manzer,
 Shan-Ping Mao,  Yuezhi Mao,  N. Mardirossian,  A. V. Marenich,
 T. Markovich,  L. A. Martinez-Martinez,  S. A. Maurer,  N. J. Mayhall,
 S. C. McKenzie,  J.-M. Mewes,  A. F. Morrison,  J. W. Mullinax,  K. Nanda,
 T. S. Nguyen-Beck,  R. Olivares-Amaya,  J. A. Parkhill,  T. M. Perrine,
 F. Plasser,  P. Pokhilko,  S. Prager,  A. Prociuk,  E. Ramos,  D. R. Rehn,
 F. Rob,  M. Schneider,  N. Sergueev,  S. M. Sharada,  S. Sharma,
 D. W. Small,  T. Stauch,  T. Stein,  Yu-Chuan Su,  A. J. W. Thom,
 A. Tkatchenko,  T. Tsuchimochi,  N. M. Tubman,  L. Vogt,  M. L. Vidal,
 O. Vydrov,  M. A. Watson,  J. Wenzel,  M. de Wergifosse,  T. A. Wesolowski,
 A. White,  J. Witte,  A. Yamada,  Jun Yang,  K. Yao,  S. Yeganeh,
 S. R. Yost,  Zhi-Qiang You,  A. Zech,  Igor Ying Zhang,  Xing Zhang,
 Yan Zhao,  Ying Zhu,  B. R. Brooks,  G. K. L. Chan,  C. J. Cramer,
 M. S. Gordon,  W. J. Hehre,  A. Klamt,  M. W. Schmidt,  C. D. Sherrill,
 D. G. Truhlar,  A. Aspuru-Guzik,  R. Baer,  A. T. Bell,  N. A. Besley,
 Jeng-Da Chai,  R. A. DiStasio Jr.,  A. Dreuw,  B. D. Dunietz,
 T. R. Furlani,  Chao-Ping Hsu,  Yousung Jung,  Jing Kong,  D. S. Lambrecht,
 WanZhen Liang,  C. Ochsenfeld,  V. A. Rassolov,  L. V. Slipchenko,
 J. E. Subotnik,  T. Van Voorhis,  J. M. Herbert,  A. I. Krylov,
 P. M. W. Gill,  M. Head-Gordon

 Contributors to earlier versions of Q-Chem not listed above:
 R. D. Adamson,  B. Austin,  J. Baker,  G. J. O. Beran,  K. Brandhorst,
 S. T. Brown,  E. F. C. Byrd,  A. K. Chakraborty,  C.-L. Cheng,
 Siu Hung Chien,  D. M. Chipman,  D. L. Crittenden,  H. Dachsel,
 R. J. Doerksen,  A. D. Dutoi,  L. Fusti-Molnar,  W. A. Goddard III,
 A. Golubeva-Zadorozhnaya,  S. R. Gwaltney,  G. Hawkins,  A. Heyden,
 S. Hirata,  G. Kedziora,  F. J. Keil,  C. Kelley,  Jihan Kim,  R. A. King,
 R. Z. Khaliullin,  P. P. Korambath,  W. Kurlancheek,  A. M. Lee,  M. S. Lee,
 S. V. Levchenko,  Ching Yeh Lin,  D. Liotard,  R. C. Lochan,  I. Lotan,
 P. E. Maslen,  N. Nair,  D. P. O'Neill,  D. Neuhauser,  E. Neuscamman,
 C. M. Oana,  R. Olson,  B. Peters,  R. Peverati,  P. A. Pieniazek,
 Y. M. Rhee,  J. Ritchie,  M. A. Rohrdanz,  E. Rosta,  N. J. Russ,
 H. F. Schaefer III,  N. E. Schultz,  N. Shenvi,  A. C. Simmonett,  A. Sodt,
 D. Stuck,  K. S. Thanthiriwatte,  V. Vanovschi,  Tao Wang,  A. Warshel,
 C. F. Williams,  Q. Wu,  X. Xu,  W. Zhang

 Please cite Q-Chem as follows:
 Y. Shao et al., Mol. Phys. 113, 184-215 (2015)
 DOI: 10.1080/00268976.2014.952696

 Q-Chem 5.1.0 for Intel X86 EM64T Linux

 Parts of Q-Chem use Armadillo 8.300.2 (Tropical Shenanigans).
 http://arma.sourceforge.net/

 Q-Chem begins on Thu May 10 15:43:42 2018

Host: n0057.mhg0
0

     Scratch files written to /scratch/romitchak/CuH-H2-freq-eda.in20180510153909//
The previous job contains 2 fragments, simply inherited here

Checking the input file for inconsistencies... 	...done.

--------------------------------------------------------------
User input:
--------------------------------------------------------------

$comment
	Now run frequency calculation
$end

$molecule
	read
$end

$rem
	jobtype freq
	method b3lyp
	dft_d d3_bj
	basis gen
	scf_guess fragmo
$end
$basis
	Cu 1
	def2-qzvppd
	****
	H 2
	def2-msvp
	****
	H 3
	def2-msvp
	****
	H 4
	def2-msvp
	****
$end

--------------------------------------------------------------

 Q-Chem 5.1, Q-Chem, Inc., Pleasanton, CA (2018)
 Q-Chem 5.1.0 for Intel X86 EM64T Linux

             Standard Nuclear Orientation (Angstroms)
    I     Atom           X                Y                Z
 ----------------------------------------------------------------
    1      Cu      0.0601206892    -0.0000110233     0.0000031154
    2      H       1.5683710249     0.0002906302    -0.0000480845
    3      H      -1.6564361056     0.3880471955    -0.0000211108
    4      H      -1.6554349047    -0.3880181496    -0.0000211509
 ----------------------------------------------------------------

   16   -1642.3766247794      9.72E-06 Convergence criterion met
 Total energy in the final basis set = -1642.37662478

                    Orbital Energies (a.u.)
 --------------------------------------------------------------

 Alpha MOs
 -- Occupied --
******* -38.829 -34.035 -34.033 -34.033  -4.315  -2.813  -2.803
 -2.802  -0.335  -0.305  -0.303  -0.295  -0.295  -0.250  -0.537

          Ground-State Mulliken Net Atomic Charges

     Atom                 Charge (a.u.)
  ----------------------------------------
      1 Cu                   -0.284254
      2 H                     0.039414
      3 H                     0.122537
      4 H                     0.122302
  ----------------------------------------
  Sum of atomic charges =    -0.000000

                    Cartesian Multipole Moments
 -----------------------------------------------------------------
    Charge (ESU x 10^10)
                 0.0000
    Dipole Moment (Debye)
         X      -3.6944      Y      -0.0004      Z       0.0002
       Tot       3.6944
    Quadrupole Moments (Debye-Ang)
        XX     -16.7423     XY      -0.0014     YY     -16.2961
        XZ       0.0001     YZ       0.0000     ZZ     -16.7387

 Total job time:  23.06s(wall), 162.65s(cpu)
        *  Thank you very much for using Q-Chem.  Have a nice day.  *
